# vtk DataFile Version 2.0
rectangle, Created by Gmsh
ASCII
DATASET UNSTRUCTURED_GRID
POINTS 21 double
0 0 0
0.3 0 0
0.3 0.12 0
0 0.12 0
0.04999999999989675 0 0
0.0999999999997538 0 0
0.149999999999619 0 0
0.1999999999997478 0 0
0.249999999999873 0 0
0.3 0.05999999999983228 0
0.250000000000112 0.12 0
0.2000000000002566 0.12 0
0.150000000000385 0.12 0
0.1000000000002548 0.12 0
0.05000000000012828 0.12 0
0 0.06000000000017074 0
0.0500000000000125 0.06000000000011433 0
0.1000000000000043 0.06000000000005791 0
0.150000000000002 0.06000000000000152 0
0.2000000000000022 0.05999999999994508 0
0.2499999999999925 0.0599999999998887 0

CELLS 40 144
2 0 4
2 4 5
2 5 6
2 6 7
2 7 8
2 8 1
2 1 9
2 9 2
2 2 10
2 10 11
2 11 12
2 12 13
2 13 14
2 14 3
2 3 15
2 15 0
3 0 4 15
3 15 4 16
3 15 16 3
3 3 16 14
3 4 5 16
3 16 5 17
3 16 17 14
3 14 17 13
3 5 6 17
3 17 6 18
3 17 18 13
3 13 18 12
3 6 7 18
3 18 7 19
3 18 19 12
3 12 19 11
3 7 8 19
3 19 8 20
3 19 20 11
3 11 20 10
3 8 1 20
3 20 1 9
3 20 9 10
3 10 9 2

CELL_TYPES 40
3
3
3
3
3
3
3
3
3
3
3
3
3
3
3
3
5
5
5
5
5
5
5
5
5
5
5
5
5
5
5
5
5
5
5
5
5
5
5
5

CELL_DATA 40
SCALARS CellEntityIds int 1
LOOKUP_TABLE default
1
1
1
1
1
1
2
2
3
3
3
3
3
3
4
4
5
5
5
5
5
5
5
5
5
5
5
5
5
5
5
5
5
5
5
5
5
5
5
5
