# vtk DataFile Version 2.0
mesh, Created by Gmsh 4.11.0 
ASCII
DATASET UNSTRUCTURED_GRID
POINTS 27 double
0 0 0
0.3 0 0
0.3 0.12 0
0 0.12 0
0.03749999999993204 0 0
0.07499999999982658 0 0
0.1124999999997228 0 0
0.149999999999619 0 0
0.1874999999997365 0 0
0.2249999999998122 0 0
0.2624999999998948 0 0
0.3 0.05999999999986558 0
0.2625000000000792 0.12 0
0.2250000000001843 0.12 0
0.1875000000002847 0.12 0
0.150000000000385 0.12 0
0.1125000000002681 0.12 0
0.07500000000018975 0.12 0
0.03750000000004472 0.12 0
0 0.06000000000015762 0
0.07500000000000817 0.06 0
0.03749999999998838 0.06000000000007881 0
0.150000000000002 0.06 0
0.1124999999999955 0.06 0
0.2249999999999983 0.06 0
0.1875000000000106 0.06 0
0.262499999999987 0.05999999999993279 0

CELLS 36 140
2 0 4
2 4 5
2 5 6
2 6 7
2 7 8
2 8 9
2 9 10
2 10 1
2 1 11
2 11 2
2 2 12
2 12 13
2 13 14
2 14 15
2 15 16
2 16 17
2 17 18
2 18 3
2 3 19
2 19 0
4 0 4 21 19
4 4 5 20 21
4 21 20 17 18
4 19 21 18 3
4 5 6 23 20
4 6 7 22 23
4 23 22 15 16
4 20 23 16 17
4 7 8 25 22
4 8 9 24 25
4 25 24 13 14
4 22 25 14 15
4 9 10 26 24
4 10 1 11 26
4 26 11 2 12
4 24 26 12 13

CELL_TYPES 36
3
3
3
3
3
3
3
3
3
3
3
3
3
3
3
3
3
3
3
3
9
9
9
9
9
9
9
9
9
9
9
9
9
9
9
9

CELL_DATA 36
SCALARS CellEntityIds int 1
LOOKUP_TABLE default
12
12
12
12
12
12
12
12
13
13
14
14
14
14
14
14
14
14
15
15
11
11
11
11
11
11
11
11
11
11
11
11
11
11
11
11
